WARNING: TZP basis will be used for Ag instead of the requested DZP basis
WARNING: TZP basis will be used for Ag instead of the requested DZP basis
WARNING: TZP basis will be used for Ag instead of the requested DZP basis
WARNING: TZP basis will be used for Ag instead of the requested DZP basis
WARNING: TZP basis will be used for Ag instead of the requested DZP basis
WARNING: TZP basis will be used for Ag instead of the requested DZP basis

 *******************************************************************************
 *                                                                             *
 *  -------------------------------------                                      *
 *   Amsterdam Density Functional  (ADF)                                       *
 *  -------------------------------------                                      *
 *                                               r                             *
 *                                                                             *
 *                                                                             *
 *                            =====================                            *
 *                            |                   |                            *
 *                            |     D I R A C     |                            *
 *                            |                   |                            *
 *                            =====================                            *
 *                                                                             *
 *                                                                             *
 *   Online information and documentation:  https://www.scm.com/support/       *
 *   E-mail:  support@scm.com   info@scm.com                                   *
 *                                                                             *
 *   Scientific publications using ADF results must be properly referenced     *
 *   See the User Manuals (or the web site) for recommended citations          *
 *   The terms and conditions of the End User License Agreement apply to       *
 *   the use of ADF, https://www.scm.com/license-terms/                        *
 *                                                                             *
 ************************  x86_64_linux_gnu / openmpi  *************************
 
 Licensed to: Prof. Lasse Jensen / Penn State University / University Park / PA  / USA
 SCM User ID: u8493
  
 DIRAC  RunTime: Oct20-2020 23:19:54  Nodes: 1  Procs: 1

 Temporary files are created in /scratch/kid_0.336685299

1
 SILVER ATOM 4p CORE RELATIVISTIC, Point Nuc, A and c from li
 N J RN H ZN XION ANUC CLIGHT
 5000   15100.00000000197.36710137 47.00000000  0.00000000  106.905093  0.1370360E+03
  PH   PHI     EPS        DEL        DELRVR
  0.30  0.30     2500.00  0.00001000  0.00001000
 IDIRC  NC1  NDEBU NPRIN  IPUN IRCOR IWCOR
   1   300     0     0     0     0    12
   XALPHA      XLATTER      RNUC
  0.70000000  0.00000000  0.00000000 Point Charge
   XN   XL   XJ      XE          XZ      XDELL
  1.0  0.0  0.5   -1500.000       2.000     0.00000
  2.0  0.0  0.5    -325.000       2.000     0.00000
  2.0  1.0  0.5    -325.000       2.000     0.00000
  2.0  1.0  1.5    -325.000       4.000     0.00000
  3.0  0.0  0.5     -70.000       2.000     0.00000
  3.0  1.0  0.5     -70.000       2.000     0.00000
  3.0  1.0  1.5     -70.000       4.000     0.00000
  3.0  2.0  1.5     -60.000       4.000     0.00000
  3.0  2.0  2.5     -60.000       6.000     0.00000
  4.0  0.0  0.5     -10.000       2.000     0.00000
  4.0  1.0  0.5     -10.000       2.000     0.00000
  4.0  1.0  1.5     -10.000       4.000     0.00000
  4.0  2.0  1.5      -1.000       4.000     0.00000
  4.0  2.0  2.5      -1.000       6.000     0.00000
  5.0  0.0  0.5      -0.500       1.000     0.00000
 ICORP=  0  NPCL=  0  DEMP=0.00  PEPS=0.000000
 R(1)=  0.1000000E-08 D=  0.1005080E+01 RNUC=  0.0000000E+00
 converged at cycle   37  DENSITY AVERAGING    0.1536
  MAXIMUM ERROR IN R.V(R) IS   0.73266208E-05
 Q,EY,EV,EZ,ESUM,ETOT,RHO  0.470000E+02 -0.196167E+03 -0.876390E+04 -0.128962E+05 -0.319969E+04 -0.531488E+04  0.734901E-11


 DIRAC CALCULATION
1                    SILVER ATOM 4p CORE RELATIVISTIC, Point Nuc, A and c from libtc


 EXCHANGE COEFFICIENT=  0.7000000           TAIL CORRECTION=  0.           NUCLEAR RADIUS=  0.000E+00
0                       ORBITAL    N    L    J     ELECTRONS     EIGENVALUE                DELTA OF EIGENV.

                          1S1/2  1.0  0.0  0.5     2.000       -0.9298445E+03                 0.2273091E-04
                          2S1/2  2.0  0.0  0.5     2.000       -0.1369628E+03                 0.3639498E-04
                          2P1/2  2.0  1.0  0.5     2.000       -0.1273849E+03                 0.3693015E-04
                          2P3/2  2.0  1.0  1.5     4.000       -0.1209397E+03                 0.3702741E-04
                          3S1/2  3.0  0.0  0.5     2.000       -0.2508734E+02                 0.1716513E-04
                          3P1/2  3.0  1.0  0.5     2.000       -0.2126622E+02                 0.1799299E-04
                          3P3/2  3.0  1.0  1.5     4.000       -0.2012758E+02                 0.1718269E-04
                          3D3/2  3.0  2.0  1.5     4.000       -0.1333155E+02                 0.2053383E-04
                          3D5/2  3.0  2.0  2.5     6.000       -0.1310170E+02                 0.2025648E-04
                          4S1/2  4.0  0.0  0.5     2.000       -0.3467319E+01                 0.6825766E-06
                          4P1/2  4.0  1.0  0.5     2.000       -0.2259901E+01                 0.4193830E-06
                          4P3/2  4.0  1.0  1.5     4.000       -0.2069785E+01                 0.2705207E-06
                          4D3/2  4.0  2.0  1.5     4.000       -0.2640772E+00                 0.3034642E-06
                          4D5/2  4.0  2.0  2.5     6.000       -0.2433402E+00                 0.3285318E-06
                          5S1/2  5.0  0.0  0.5     1.000       -0.1450750E+00                 0.2931480E-06


                                        NUCLEAR CHARGE=   47.000000
                            INTEGRAL OF CHARGE DENSITY=   47.000000
                           SUM OF THE ORBITAL ENERGIES=  -3199.6921
                                          TOTAL ENERGY=  -5314.8812
                                        KINETIC ENERGY=   5564.2055
                             NUCLEAR ATTRACTION ENERGY= -12896.1922
                             ELECTRON REPULSION ENERGY=   2164.2310
                                       EXCHANGE ENERGY=   -147.1255

 *******************************************************************************

                             D I R A C   E X I T
 NORMAL TERMINATION



 =================
 Timing Statistics
 =================
  
 Total Used :                     CPU=        0.24      System=        0.01     Elapsed=        0.25

 Calls  Section                     ( Mean, Percentage )
 ---------------------------------------------------------------------------------------------------
     2  ><      ................      0.00    0.00             0.00    0.00             0.00    0.00
     1  EXIT PROCEDURE .........      0.24  100.00             0.01  100.00             0.25  100.00


 Currently Open Files (EXIT00)
 ====================

 Unit    Access Format  Status   Type       Ident (file)
 -------------------------------------------------------
   3      SEQ    FORM   TRANSP  NORMAL      LOGFILE
                                          ( logfile )

Create Ag   file=TZP-Ag.4p
xc
  LDA
End
relativistic ZORA
Corepotentials t12.rel
End

 *******************************************************************************
 *                                                                             *
 *  -------------------------------------                                      *
 *   Amsterdam Density Functional  (ADF)                                       *
 *  -------------------------------------                                      *
 *                                               r                             *
 *                                                                             *
 *                                                                             *
 *                              =================                              *
 *                              |               |                              *
 *                              |     A D F     |                              *
 *                              |               |                              *
 *                              =================                              *
 *                                                                             *
 *                                                                             *
 *   Online information and documentation:  https://www.scm.com/support/       *
 *   E-mail:  support@scm.com   info@scm.com                                   *
 *                                                                             *
 *   Scientific publications using ADF results must be properly referenced     *
 *   See the User Manuals (or the web site) for recommended citations          *
 *   The terms and conditions of the End User License Agreement apply to       *
 *   the use of ADF, https://www.scm.com/license-terms/                        *
 *                                                                             *
 ************************  x86_64_linux_gnu / openmpi  *************************
 
 Licensed to: Prof. Lasse Jensen / Penn State University / University Park / PA  / USA
 SCM User ID: u8493
  
 ADF  RunTime: Oct20-2020 23:19:54  Nodes: 1  Procs: 1

 Temporary files are created in /scratch/kid_0.2079102395

 Silver (TZP, 4p frozen)



 ===========================
 A T T A C H E D   F I L E S
 ===========================
  
 CREATE - Data File:    TZP-Ag.4p
                        Silver (TZP, 4p frozen)
 Core Potentials:
         file : t12.rel



 ===============================
 M O D E L   P A R A M E T E R S
 ===============================
  
 DENSITY FUNCTIONAL POTENTIAL (scf)
    LDA:                               VWN                                      
    Gradient Corrections:              ---                                      

 SPIN  (restricted / unrestr.)
    Molecule:                          Restricted                               

 OTHER ASPECTS
    Relativistic Corrections:          scalar (ZORA,MAPA)                      == Not Default ==

    Nuclear Charge Density Model:      Point Charge Nuclei                      
    Core Treatment:                    Frozen Orbital(s)                        

    Hyperfine or Zeeman Interaction:   ---                                      



 =====================================
 S Y M M E T R Y ,   E L E C T R O N S
 =====================================
  
 Symmetry: ATOM

 Irreducible Representations, including subspecies
 -------------------------------------------------
 S
 P:x  P:y  P:z
 D:z2  D:x2-y2  D:xy  D:xz  D:yz
 F:z3  F:z  F:xyz  F:z2x  F:z2y  F:x  F:y


 Configuration of Valence Electrons
 ==================================

          Occupation Numbers
          -------------------------------------------------
 S        1
 P        0
 D        10
 F        0
          -------------------------------------------------

 Total:   11

 Net Charge: 0 (Nuclei minus Electrons)

 Preset values for MO occupations will be applied through SCF cycle no. 1000000
 Thereafter, the program will assign electrons to MOs that are spatially
 similar to the occupied MOs in a "reference" cycle ("KeepOrbitals").
 The reference cycle is always the PREVIOUS cycle: it will evolve with
 the SCF procedure.



 ================================
 (Slater-type)  F U N C T I O N S  ***  (Basis and Fit)  ***
 ================================
  

 Atom Type    1  (Ag)
 ==============

 Valence Basis Sets:  15
 -----------------------
   1 S   30.800000
   2 S   20.300000
   3 S    9.550000
   4 S    5.950000
   2 P   21.100000
   3 P   10.100000
   4 P    4.450000
   3 D   11.650000
   5 S    2.600000
   5 S    1.550000
   5 S    0.950000
   4 D    4.750000
   4 D    2.600000
   4 D    1.380000
   5 P    1.550000

 Frozen Core Shells
 ------------------
    S:  4
    P:  3
    D:  1


 BAS: List of all Elementary Cartesian Basis Functions
 =====================================================

 The numbering in the list below (to the right of the function characteristics) is referred
 to in print-outs of MO eigenvectors and Mulliken populations in the BAS representation
 (as contrasted to the SFO representation).

 Notes:
 1. The functions are characterized by a polynomial prefactor (powers of x,y,z and r) and
    an exponential decay factor alpha.
 2. Since the basis sets are specific for an atom TYPE, the individual functions occur on
    all atoms of that type.
 3. The word 'Core' in the left margin signals that it is a Core Function (CF) : not a
    degree of freedom in the valence set, but only used to ensure orthogonalization of
    the other valence basis functions on the frozen Core Orbitals.


 (power of) X  Y  Z  R     Alpha  on Atom
            ==========     =====     ==========

 Ag                                   1
                                  ---------------------------------------------------------------------------
    Core    0  0  0  0    30.800      1
    Core    0  0  0  1    20.300      2
    Core    0  0  0  2     9.550      3
    Core    0  0  0  3     5.950      4
    Core    1  0  0  0    21.100      5
    Core    0  1  0  0    21.100      6
    Core    0  0  1  0    21.100      7
    Core    1  0  0  1    10.100      8
    Core    0  1  0  1    10.100      9
    Core    0  0  1  1    10.100     10
    Core    1  0  0  2     4.450     11
    Core    0  1  0  2     4.450     12
    Core    0  0  1  2     4.450     13
    Core    2  0  0  0    11.650     14
    Core    1  1  0  0    11.650     15
    Core    1  0  1  0    11.650     16
    Core    0  2  0  0    11.650     17
    Core    0  1  1  0    11.650     18
    Core    0  0  2  0    11.650     19
            0  0  0  4     2.600     20
            0  0  0  4     1.550     21
            0  0  0  4     0.950     22
            2  0  0  1     4.750     23
            1  1  0  1     4.750     24
            1  0  1  1     4.750     25
            0  2  0  1     4.750     26
            0  1  1  1     4.750     27
            0  0  2  1     4.750     28
            2  0  0  1     2.600     29
            1  1  0  1     2.600     30
            1  0  1  1     2.600     31
            0  2  0  1     2.600     32
            0  1  1  1     2.600     33
            0  0  2  1     2.600     34
            2  0  0  1     1.380     35
            1  1  0  1     1.380     36
            1  0  1  1     1.380     37
            0  2  0  1     1.380     38
            0  1  1  1     1.380     39
            0  0  2  1     1.380     40
            1  0  0  3     1.550     41
            0  1  0  3     1.550     42
            0  0  1  3     1.550     43

 Total number of charge fitting functions (nprimf)       215
 Total number of Cartesian basis functions (naos)         43
 Total number of Cartesian core functions  (ncos)         19



 BAS: List of all Elementary Cartesian Basis Functions
 =====================================================

 The numbering in the list below (to the right of the function characteristics) is referred
 to in print-outs of MO eigenvectors and Mulliken populations in the BAS representation
 (as contrasted to the SFO representation).

 Notes:
 1. The functions are characterized by a polynomial prefactor (powers of x,y,z and r) and
    an exponential decay factor alpha.
 2. Since the basis sets are specific for an atom TYPE, the individual functions occur on
    all atoms of that type.
 3. The word 'Core' in the left margin signals that it is a Core Function (CF) : not a
    degree of freedom in the valence set, but only used to ensure orthogonalization of
    the other valence basis functions on the frozen Core Orbitals.


 (power of) X  Y  Z  R     Alpha  on Atom
            ==========     =====     ==========

 Ag                                   1
                                  ---------------------------------------------------------------------------
    Core    0  0  0  0    30.800      1
    Core    0  0  0  1    20.300      2
    Core    0  0  0  2     9.550      3
    Core    0  0  0  3     5.950      4
    Core    1  0  0  0    21.100      5
    Core    0  1  0  0    21.100      6
    Core    0  0  1  0    21.100      7
    Core    1  0  0  1    10.100      8
    Core    0  1  0  1    10.100      9
    Core    0  0  1  1    10.100     10
    Core    1  0  0  2     4.450     11
    Core    0  1  0  2     4.450     12
    Core    0  0  1  2     4.450     13
    Core    2  0  0  0    11.650     14
    Core    1  1  0  0    11.650     15
    Core    1  0  1  0    11.650     16
    Core    0  2  0  0    11.650     17
    Core    0  1  1  0    11.650     18
    Core    0  0  2  0    11.650     19
            0  0  0  4     2.600     20
            0  0  0  4     1.550     21
            0  0  0  4     0.950     22
            2  0  0  1     4.750     23
            1  1  0  1     4.750     24
            1  0  1  1     4.750     25
            0  2  0  1     4.750     26
            0  1  1  1     4.750     27
            0  0  2  1     4.750     28
            2  0  0  1     2.600     29
            1  1  0  1     2.600     30
            1  0  1  1     2.600     31
            0  2  0  1     2.600     32
            0  1  1  1     2.600     33
            0  0  2  1     2.600     34
            2  0  0  1     1.380     35
            1  1  0  1     1.380     36
            1  0  1  1     1.380     37
            0  2  0  1     1.380     38
            0  1  1  1     1.380     39
            0  0  2  1     1.380     40
            1  0  0  3     1.550     41
            0  1  0  3     1.550     42
            0  0  1  3     1.550     43
1
 ***************************************************************************************************



                                              ***********************
                                              *  T E C H N I C A L  *
                                              ***********************
  



 =============================================================
 P A R A L L E L I Z A T I O N  and  V E C T O R I Z A T I O N
 =============================================================
  
 Nr of parallel processes:                                1
 Maximum vector length in NumInt loops:                 128



 =====================
 S C F   U P D A T E S
 =====================
  
 Max. nr. of cycles:                               300
 Convergence criterion:                              0.0000000100
   secondary criterion:                              0.0000000100

 Mix parameter (when DIIS does not apply):           0.2000000000
 Special mix parameter for the first cycle:          1.0000000000
 Mixed ADIIS+SDIIS will be used                  
    Max number of expansion vectors:                10
    Pure ADIIS when Max([F,P]) is above              0.1000000000
    Pure SDIIS when Max([F,P]) is below              0.0010000000
 Automatic ElectronSmearing (in case of problematic SCF convergence) disabled



 =================
 P R E C I S I O N  ***  (General: NumInt, NeglectFunctionTails, ...)  ***
 =================
  

 NumInt:           Target precision:                12.0000000000
 -------           Initial precision:               10.0000000000
                   Min. precision (optimization):   10.0000000000

 Neglect Functions:          Basis functions:        0.1000000000E-13
 ------------------          Fit functions:          0.1000000000E-13



 ===========================
 L I N E A R   S C A L I N G
 ===========================
  

 Cut-off radii density fit:                        0.1000000000E-97
 Overlap cut-off criterion AO matrix elements:     0.1000000000E-97
 Cut-offs for Coulomb potential and fitted density:0.1000000000E-97
 Cut-off criterion for Coulomb multipole terms:    0.1000000000E-97
 Progressive Convergence parameter:                 0.000000000    
1
 ***************************************************************************************************



                                            ***************************
                                            *  C O M P U T A T I O N  *
                                            ***************************
  

 Number of elements of the density matrix on this node (used, total):       946       946



 ===========================================
 Numerical Integration : Fuzzy Cells (Becke)
 ===========================================
  
 Becke grid quality: VERYGOOD       
  
 Lebedev angular grid order:             min:  13 max:  41
 Nr. of radial points:                   min: 115 max: 115

 Total nr. of points:        115
 Nr. of blocks:                1
 Block length:               115
 Nr. of dummy points:          0


 Test of Precision of the Numerical Integration Grid
 ===================================================

 Integral of the Total Core Density:                  35.99999988808990
 Relative Error:                                      -3.109E-09



 ========================
 Density Fitting (zlmFit)
 ========================
  
 ZlmFit Fit Quality: VERYGOOD       
  
 Max L-expansion:                        min:   0 max:   0
 Nr. of radial interpolation points:     min: 230 max: 230



 =====
 S C F  ***  ScaSCF  ***
 =====
  

 CYCLE    1
 SCF Error: norm([F,P])=      0.000000000000, max([F,P])=      0.000000000000
 orbitals (Q,E):
 ---------------
 S :1...3            ( 1.00    -5.1935)  ( 0.00    -2.7162)  ( 0.00    -1.5571)
 P :1...1            ( 0.00    -3.1489)
 D :1...3            (10.00    -7.6969)  ( 0.00    -4.0021)  ( 0.00    -2.4014)

 CYCLE    2
  SDIIS (wt  0.000):  1.0000  0.0000
 A-DIIS (wt  1.000):  0.2069  0.7931
  DIIS coefficients:  0.2069  0.7931
 SCF Error: norm([F,P])=      6.328694647386, max([F,P])=      2.070618852588
 orbitals (Q,E):
 ---------------
 S :1...2            ( 1.00    -0.7246)  ( 0.00    -0.3001)
 P :1...1            ( 0.00    -0.4972)
 D :1...2            (10.00    -0.6900)  ( 0.00    -0.1455)

 CYCLE    3
  SDIIS (wt  0.000):  0.3206  0.6794
 A-DIIS (wt  1.000):  0.1273  0.8727
  DIIS coefficients:  0.1273  0.8727
 SCF Error: norm([F,P])=      3.143437561489, max([F,P])=      1.147148768841
 orbitals (Q,E):
 ---------------
 S :1...2            ( 1.00    -0.2786)  ( 0.00     0.0346)
 P :1...1            ( 0.00    -0.0281)
 D :1...2            (10.00    -0.7542)  ( 0.00     0.2273)

 CYCLE    4
  SDIIS (wt  0.000): -0.1719  0.3235  0.8484
 A-DIIS (wt  1.000):  0.0000  0.3884  0.6116
  DIIS coefficients:  0.0000  0.3884  0.6116
 SCF Error: norm([F,P])=      2.394087625026, max([F,P])=      0.730151206231
 orbitals (Q,E):
 ---------------
 S :1...2            ( 1.00    -0.1464)  ( 0.00     0.0630)
 P :1...1            ( 0.00     0.0306)
 D :1...2            (10.00    -0.2178)  ( 0.00     0.3180)

 CYCLE    5
  SDIIS (wt  0.000): -0.0495 -0.0056  0.2442  0.8109
 A-DIIS (wt  1.000):  0.0000  0.0000  0.0000  1.0000
  DIIS coefficients:  0.0000  0.0000  0.0000  1.0000
 SCF Error: norm([F,P])=      0.383125574425, max([F,P])=      0.144791713825
 orbitals (Q,E):
 ---------------
 S :1...2            ( 1.00    -0.1990)  ( 0.00     0.0390)
 P :1...1            ( 0.00    -0.0060)
 D :1...2            (10.00    -0.3811)  ( 0.00     0.2677)

 CYCLE    6
  SDIIS (wt  0.000):  0.0018 -0.0081 -0.0491  0.5674  0.4881
 A-DIIS (wt  1.000):  0.0000  0.0000  0.0000  0.6840  0.3160
  DIIS coefficients:  0.0000  0.0000  0.0000  0.6840  0.3160
 SCF Error: norm([F,P])=      0.607658468363, max([F,P])=      0.217715677444
 orbitals (Q,E):
 ---------------
 S :1...2            ( 1.00    -0.1773)  ( 0.00     0.0459)
 P :1...1            ( 0.00     0.0065)
 D :1...2            (10.00    -0.2994)  ( 0.00     0.2867)

 CYCLE    7
  SDIIS (wt  0.556):  0.0003 -0.0056 -0.0046  0.2578  0.7520
 A-DIIS (wt  0.444):  0.0000  0.0000  0.0000  0.0976  0.9024
  DIIS coefficients:  0.0002 -0.0031 -0.0025  0.1867  0.8188
 SCF Error: norm([F,P])=      0.119747728370, max([F,P])=      0.044962537015
 orbitals (Q,E):
 ---------------
 S :1...2            ( 1.00    -0.1700)  ( 0.00     0.0482)
 P :1...1            ( 0.00     0.0108)
 D :1...2            (10.00    -0.2719)  ( 0.00     0.2936)

 CYCLE    8
  SDIIS (wt  0.794):  0.0004 -0.0103  0.0116  0.1296  0.8687
 A-DIIS (wt  0.206):  0.0000  0.0000  0.0000  0.0000  1.0000
  DIIS coefficients:  0.0003 -0.0082  0.0092  0.1029  0.8957
 SCF Error: norm([F,P])=      0.056431501142, max([F,P])=      0.021362703461
 orbitals (Q,E):
 ---------------
 S :1...2            ( 1.00    -0.1731)  ( 0.00     0.0472)
 P :1...1            ( 0.00     0.0090)
 D :1...2            (10.00    -0.2835)  ( 0.00     0.2906)

 CYCLE    9
  SDIIS (wt  0.932):  0.0043 -0.0103 -0.0589  1.0649
 A-DIIS (wt  0.068):  0.0000  0.0000  0.0000  1.0000
  DIIS coefficients:  0.0040 -0.0096 -0.0550  1.0606
 SCF Error: norm([F,P])=      0.020462045390, max([F,P])=      0.007691211123
 orbitals (Q,E):
 ---------------
 S :1...2            ( 1.00    -0.1722)  ( 0.00     0.0474)
 P :1...1            ( 0.00     0.0095)
 D :1...2            (10.00    -0.2800)  ( 0.00     0.2914)

 CYCLE   10
  SDIIS (wt  1.000): -0.0053  0.0009  1.0044
  DIIS coefficients: -0.0053  0.0009  1.0044
 SCF Error: norm([F,P])=      0.002544284796, max([F,P])=      0.000954562635
 orbitals (Q,E):
 ---------------
 S :1...2            ( 1.00    -0.1723)  ( 0.00     0.0474)
 P :1...1            ( 0.00     0.0094)
 D :1...2            (10.00    -0.2804)  ( 0.00     0.2913)

 CYCLE   11
  SDIIS (wt  1.000):  0.0005 -0.0004 -0.0053  0.0283  0.1271  0.8497
  DIIS coefficients:  0.0005 -0.0004 -0.0053  0.0283  0.1271  0.8497
 SCF Error: norm([F,P])=      0.000045995037, max([F,P])=      0.000018290250
 orbitals (Q,E):
 ---------------
 S :1...2            ( 1.00    -0.1723)  ( 0.00     0.0474)
 P :1...1            ( 0.00     0.0094)
 D :1...2            (10.00    -0.2804)  ( 0.00     0.2913)

 CYCLE   12
  SDIIS (wt  1.000):  0.0000 -0.0001 -0.0002  0.0105  0.9898
  DIIS coefficients:  0.0000 -0.0001 -0.0002  0.0105  0.9898
 SCF Error: norm([F,P])=      0.000000555674, max([F,P])=      0.000000197299
 orbitals (Q,E):
 ---------------
 S :1...2            ( 1.00    -0.1723)  ( 0.00     0.0474)
 P :1...1            ( 0.00     0.0094)
 D :1...2            (10.00    -0.2804)  ( 0.00     0.2913)

 CYCLE   13
  SDIIS (wt  1.000): -0.0000  0.0006  0.9994
  DIIS coefficients: -0.0000  0.0006  0.9994
 SCF Error: norm([F,P])=      0.000000001510, max([F,P])=      0.000000000611
 orbitals (Q,E):
 ---------------
 S :1...2            ( 1.00    -0.1723)  ( 0.00     0.0474)
 P :1...1            ( 0.00     0.0094)
 D :1...2            (10.00    -0.2804)  ( 0.00     0.2913)

 SCF CONVERGED

 CYCLE   14
1
 ***************************************************************************************************



                                                *******************
                                                *  R E S U L T S  *
                                                *******************
  
 *** Using FIT density in Focky
  SDIIS (wt  1.000):  0.0001 -0.0423  1.0422
  DIIS coefficients:  0.0001 -0.0423  1.0422
 SCF Error: norm([F,P])=      0.000000000020, max([F,P])=      0.000000000008

 Scaled ZORA Orbital Energies, per Irrep and Spin:
 =================================================
                        Occup              E (au)              E (eV)       Diff (eV) with prev. cycle
                        -----      --------------------        ------       --------------------------
 S
               1        1.000     -0.17228365783992E+00        -4.688               5.09E-10
               2        0.000      0.47420219933586E-01         1.290
               3        0.000      0.58544032784390E+00        15.931
 P
               1        0.000      0.94368830630886E-02         0.257
 D
               1       10.000     -0.28041517488259E+00        -7.630               6.47E-10
               2        0.000      0.29133367292626E+00         7.928
               3        0.000      0.22160211832900E+01        60.301


 Partially Occupied:
               1 S                -0.17228365783992E+00
  
 HOMO :        1 D                -0.28041517488259E+00
 LUMO :        1 P                 0.94368830630886E-02
  


 Orbital Energies, all Irreps
 ========================================

 Irrep        no.  (spin)   Occup              E (au)                E (eV)
 ---------------------------------------------------------------------------
 D             1            10.00       -0.28041517488259E+00        -7.6305
 S             1             1.00       -0.17228365783992E+00        -4.6881
 P             1             0.00        0.94368830630886E-02         0.2568
 S             2             0.00        0.47420219933586E-01         1.2904
 D             2             0.00        0.29133367292626E+00         7.9276
 S             3             0.00        0.58544032784390E+00        15.9306
 D             3             0.00        0.22160211832900E+01        60.3010


 Scaled ZORA Orbital Energies of the Core Orbitals:
 ==================================================

 (Note that the atoms are grouped by atomtype, see the labels, and may hence NOT be in input order)

 AtomType  Orbital  Atom                   E (au)                        E (eV)
 --------  -------  ----           --------------------        ----------------
 Ag          1S        1          -0.92891941505569E+03              -25277.183
             2S        1          -0.13676676314128E+03               -3721.613
             3S        1          -0.25037748169938E+02                -681.312
             4S        1          -0.34981961203882E+01                 -95.191
             2P        1          -0.12271080175182E+03               -3339.131
             3P        1          -0.20452007431460E+02                -556.527
             4P        1          -0.21672333039507E+01                 -58.973
             3D        1          -0.13177535182552E+02                -358.579



 =======================================
 M U L L I K E N   P O P U L A T I O N S
 =======================================
  
 The survey below gives for each atom:
 a) the total charge (Z minus electrons)
 b) the net spin polarization (nr of electrons spin-A minus spin-B)
 c) for each spin the atomic electron valence density (integrated) per L-value.

 Atom              Charge    Spin density          S         P         D         F
 ----              ------    ------------       ------    ------    ------    ------
 1 Ag              0.0000                       1.0000    0.0000   10.0000    0.0000

 Populations of individual BAS functions
 ----------------------------------------
 1 Ag          -0.0003  0.0001 -0.0021  0.0239  0.0000  0.0000  0.0000  0.0000  0.0000  0.0000
                0.0000  0.0000  0.0000  0.0385  0.0577  0.0577  0.0385  0.0577  0.0385  0.3386
                0.5569  0.0827  0.5489  0.8233  0.8233  0.5489  0.8233  0.5489  0.6411  0.9616
                0.9616  0.6411  0.9616  0.6411  0.1049  0.1573  0.1573  0.1049  0.1573  0.1049
                0.0000  0.0000  0.0000

 Gross Charges per Atom (Z minus electrons)
 ==========================================
             0.0000
 Net Total:  0.00000000



 =======================================================================
 Electrostatic potential at the Nuclei due to electrons and other nuclei
 =======================================================================
  
         Atom                  Potential
         ----                  ---------
     1)   Ag                274.27011187


 ========================
 No memory problems found
 ========================

 Maximum number of active allocate calls:         392

 *******************************************************************************

                             A D F   E X I T
 NORMAL TERMINATION



 =================
 Timing Statistics
 =================
  
 Total Used :                     CPU=        0.55      System=        0.01     Elapsed=        0.56

 Calls  Section                     ( Mean, Percentage )
 ---------------------------------------------------------------------------------------------------
     3  ><      ................      0.00    0.38             0.00    0.01             0.00    0.37
     1  INIT    ................      0.05    9.45             0.00    0.00             0.05    9.50
     1  GEOMET  ................      0.01    2.34             0.00    0.00             0.01    2.30
     1  INPUTA  ................      0.00    0.45             0.00    0.00             0.00    0.44
     1  MAINSY  ................      0.01    2.62             0.00    0.00             0.01    2.58
     1  SYMFIT  ................      0.00    0.10             0.00    0.00             0.00    0.10
     1  CORORT  ................      0.00    0.14             0.00    0.00             0.00    0.13
     1  SYMORB  ................      0.00    0.10             0.00    0.00             0.00    0.10
     1  CLSMAT  ................      0.00    0.61             0.00    0.00             0.00    0.60
     1  ORTHON  ................      0.00    0.68             0.00    0.00             0.00    0.67
     1  GENPT   ................      0.01    2.09             0.00    0.00             0.01    2.05
     1  PTBAS   ................      0.00    0.64             0.00    0.00             0.00    0.63
    14  FOCKY   ................      0.03   68.43             0.00   95.51             0.03   68.67
    14  FOCKTR  ................      0.00    0.84             0.00    0.00             0.00    0.82
    14  SDIIS   ................      0.00    3.57             0.00    4.48             0.00    3.57
     1  COREPS  ................      0.03    4.57             0.00    0.00             0.03    4.50
     1  POPAN   ................      0.00    0.54             0.00    0.00             0.00    0.53
     1  DEBYE   ................      0.00    0.20             0.00    0.00             0.00    0.20
     1  EXIT PROCEDURE .........      0.01    2.27             0.00    0.00             0.01    2.24


 Currently Open Files (EXIT00)
 ====================

 Unit    Access Format  Status   Type       Ident (file)
 -------------------------------------------------------
   3      SEQ    FORM   TRANSP  NORMAL      LOGFILE
                                          ( logfile )

 ***************************************************************************************************
 (LOGFILE)
 <Oct20-2020> <23:19:54>  DIRAC  RunTime: Oct20-2020 23:19:54  Nodes: 1  Procs: 1
 <Oct20-2020> <23:19:54>  NORMAL TERMINATION
 <Oct20-2020> <23:19:54>  END
 <Oct20-2020> <23:19:54>  ADF  RunTime: Oct20-2020 23:19:54  Nodes: 1  Procs: 1
 <Oct20-2020> <23:19:54>  Silver (TZP, 4p frozen)
 <Oct20-2020> <23:19:54>  RunType   : CREATE
 <Oct20-2020> <23:19:54>  Net Charge: 0 (Nuclei minus Electrons)
 <Oct20-2020> <23:19:54>  Symmetry  : ATOM
  Coordinates
    Atom         X           Y           Z   (Angstrom)
    1.Ag        0.000000    0.000000    0.000000
 <Oct20-2020> <23:19:54>  >>>> CORORT
 <Oct20-2020> <23:19:54>  >>>> CLSMAT
 <Oct20-2020> <23:19:54>  >>>> ORTHON
 <Oct20-2020> <23:19:54>  >>>> GENPT
 <Oct20-2020> <23:19:54>  Block Length= 115
 <Oct20-2020> <23:19:54>  >>>> PTBAS
 <Oct20-2020> <23:19:54>  >>>> CYCLE
 <Oct20-2020> <23:19:55>              |Error|         MaxErr       Wt(A-DIIS)
 <Oct20-2020> <23:19:55>      1      0.00000000      0.00000000
 <Oct20-2020> <23:19:55>      2      6.32869465      2.07061885    100.0
 <Oct20-2020> <23:19:55>      3      3.14343756      1.14714877    100.0
 <Oct20-2020> <23:19:55>      4      2.39408763      0.73015121    100.0
 <Oct20-2020> <23:19:55>      5      0.38312557      0.14479171    100.0
 <Oct20-2020> <23:19:55>      6      0.60765847      0.21771568    100.0
 <Oct20-2020> <23:19:55>      7      0.11974773      0.04496254     44.4
 <Oct20-2020> <23:19:55>      8      0.05643150      0.02136270     20.6
 <Oct20-2020> <23:19:55>      9      0.02046205      0.00769121      6.8
 <Oct20-2020> <23:19:55>     10      0.00254428      0.00095456      0.0
 <Oct20-2020> <23:19:55>     11      0.00004600      0.00001829      0.0
 <Oct20-2020> <23:19:55>     12      0.00000056      0.00000020      0.0
 <Oct20-2020> <23:19:55>     13      0.00000000      0.00000000      0.0
 <Oct20-2020> <23:19:55>  SCF converged
 <Oct20-2020> <23:19:55>     14      0.00000000      0.00000000      0.0
 <Oct20-2020> <23:19:55>  >>>> POPAN
 <Oct20-2020> <23:19:55>  >>>> DEBYE
 <Oct20-2020> <23:19:55>  NORMAL TERMINATION
 <Oct20-2020> <23:19:55>  END

 *******************************************************************************
 *                                                                             *
 *  -------------------------------------                                      *
 *   Amsterdam Density Functional  (ADF)                                       *
 *  -------------------------------------                                      *
 *                                               r                             *
 *                                                                             *
 *                                                                             *
 *                            =====================                            *
 *                            |                   |                            *
 *                            |     D I R A C     |                            *
 *                            |                   |                            *
 *                            =====================                            *
 *                                                                             *
 *                                                                             *
 *   Online information and documentation:  https://www.scm.com/support/       *
 *   E-mail:  support@scm.com   info@scm.com                                   *
 *                                                                             *
 *   Scientific publications using ADF results must be properly referenced     *
 *   See the User Manuals (or the web site) for recommended citations          *
 *   The terms and conditions of the End User License Agreement apply to       *
 *   the use of ADF, https://www.scm.com/license-terms/                        *
 *                                                                             *
 ************************  x86_64_linux_gnu / openmpi  *************************
 
 Licensed to: Prof. Lasse Jensen / Penn State University / University Park / PA  / USA
 SCM User ID: u8493
  
 DIRAC  RunTime: Oct20-2020 23:19:55  Nodes: 1  Procs: 1

 Temporary files are created in /scratch/kid_0.2096868703

1
 CARBON ATOM 1s CORE RELATIVISTIC, Point Nuc, A and c from li
 N J RN H ZN XION ANUC CLIGHT
 5000    4100.00000000197.36710137  6.00000000  0.00000000   12.000000  0.1370360E+03
  PH   PHI     EPS        DEL        DELRVR
  0.30  0.30     2500.00  0.00001000  0.00001000
 IDIRC  NC1  NDEBU NPRIN  IPUN IRCOR IWCOR
   1   300     0     0     0     0     1
   XALPHA      XLATTER      RNUC
  0.70000000  0.00000000  0.00000000 Point Charge
   XN   XL   XJ      XE          XZ      XDELL
  1.0  0.0  0.5      -5.000       2.000     0.00000
  2.0  0.0  0.5      -1.000       2.000     0.00000
  2.0  1.0  0.5      -1.000       2.000     0.00000
  2.0  1.0  1.5      -1.000       0.000     0.00000
 ICORP=  0  NPCL=  0  DEMP=0.00  PEPS=0.000000
 R(1)=  0.1000000E-08 D=  0.1005080E+01 RNUC=  0.0000000E+00
 converged at cycle   26  DENSITY AVERAGING    0.3000
  MAXIMUM ERROR IN R.V(R) IS   0.55010513E-05
 Q,EY,EV,EZ,ESUM,ETOT,RHO  0.600000E+01 -0.610129E+01 -0.585189E+02 -0.876464E+02 -0.211985E+02 -0.372876E+02  0.164808E-14


 DIRAC CALCULATION
1                    CARBON ATOM 1s CORE RELATIVISTIC, Point Nuc, A and c from libtc


 EXCHANGE COEFFICIENT=  0.7000000           TAIL CORRECTION=  0.           NUCLEAR RADIUS=  0.000E+00
0                       ORBITAL    N    L    J     ELECTRONS     EIGENVALUE                DELTA OF EIGENV.

                          1S1/2  1.0  0.0  0.5     2.000       -0.9959611E+01                 0.1355092E-04
                          2S1/2  2.0  0.0  0.5     2.000       -0.4708542E+00                 0.1106918E-05
                          2P1/2  2.0  1.0  0.5     2.000       -0.1687896E+00                 0.8770186E-06
                          2P3/2  2.0  1.0  1.5     0.000       -0.1684646E+00                 0.8770830E-06


                                        NUCLEAR CHARGE=    6.000000
                            INTEGRAL OF CHARGE DENSITY=    6.000000
                           SUM OF THE ORBITAL ENERGIES=    -21.1985
                                          TOTAL ENERGY=    -37.2876
                                        KINETIC ENERGY=     37.3204
                             NUCLEAR ATTRACTION ENERGY=    -87.6464
                             ELECTRON REPULSION ENERGY=     17.6144
                                       EXCHANGE ENERGY=     -4.5760

 *******************************************************************************

                             D I R A C   E X I T
 NORMAL TERMINATION



 =================
 Timing Statistics
 =================
  
 Total Used :                     CPU=        0.08      System=        0.00     Elapsed=        0.08

 Calls  Section                     ( Mean, Percentage )
 ---------------------------------------------------------------------------------------------------
     2  ><      ................      0.00    0.00             0.00  100.00             0.00    0.01
     1  EXIT PROCEDURE .........      0.08  100.00             0.00    0.00             0.08   99.99


 Currently Open Files (EXIT00)
 ====================

 Unit    Access Format  Status   Type       Ident (file)
 -------------------------------------------------------
   3      SEQ    FORM   TRANSP  NORMAL      LOGFILE
                                          ( logfile )

Create C   file=DZP-C.1s
xc
  LDA
End
relativistic ZORA
Corepotentials t12.rel
End

 *******************************************************************************
 *                                                                             *
 *  -------------------------------------                                      *
 *   Amsterdam Density Functional  (ADF)                                       *
 *  -------------------------------------                                      *
 *                                               r                             *
 *                                                                             *
 *                                                                             *
 *                              =================                              *
 *                              |               |                              *
 *                              |     A D F     |                              *
 *                              |               |                              *
 *                              =================                              *
 *                                                                             *
 *                                                                             *
 *   Online information and documentation:  https://www.scm.com/support/       *
 *   E-mail:  support@scm.com   info@scm.com                                   *
 *                                                                             *
 *   Scientific publications using ADF results must be properly referenced     *
 *   See the User Manuals (or the web site) for recommended citations          *
 *   The terms and conditions of the End User License Agreement apply to       *
 *   the use of ADF, https://www.scm.com/license-terms/                        *
 *                                                                             *
 ************************  x86_64_linux_gnu / openmpi  *************************
 
 Licensed to: Prof. Lasse Jensen / Penn State University / University Park / PA  / USA
 SCM User ID: u8493
  
 ADF  RunTime: Oct20-2020 23:19:55  Nodes: 1  Procs: 1

 Temporary files are created in /scratch/kid_0.1495825775

 Carbon (DZP, 1s frozen)



 ===========================
 A T T A C H E D   F I L E S
 ===========================
  
 CREATE - Data File:    DZP-C.1s
                        Carbon (DZP, 1s frozen)
 Core Potentials:
         file : t12.rel



 ===============================
 M O D E L   P A R A M E T E R S
 ===============================
  
 DENSITY FUNCTIONAL POTENTIAL (scf)
    LDA:                               VWN                                      
    Gradient Corrections:              ---                                      

 SPIN  (restricted / unrestr.)
    Molecule:                          Restricted                               

 OTHER ASPECTS
    Relativistic Corrections:          scalar (ZORA,MAPA)                      == Not Default ==

    Nuclear Charge Density Model:      Point Charge Nuclei                      
    Core Treatment:                    Frozen Orbital(s)                        

    Hyperfine or Zeeman Interaction:   ---                                      



 =====================================
 S Y M M E T R Y ,   E L E C T R O N S
 =====================================
  
 Symmetry: ATOM

 Irreducible Representations, including subspecies
 -------------------------------------------------
 S
 P:x  P:y  P:z
 D:z2  D:x2-y2  D:xy  D:xz  D:yz
 F:z3  F:z  F:xyz  F:z2x  F:z2y  F:x  F:y


 Configuration of Valence Electrons
 ==================================

          Occupation Numbers
          -------------------------------------------------
 S        2
 P        2
 D        0
 F        0
          -------------------------------------------------

 Total:   4

 Net Charge: 0 (Nuclei minus Electrons)

 Preset values for MO occupations will be applied through SCF cycle no. 1000000
 Thereafter, the program will assign electrons to MOs that are spatially
 similar to the occupied MOs in a "reference" cycle ("KeepOrbitals").
 The reference cycle is always the PREVIOUS cycle: it will evolve with
 the SCF procedure.



 ================================
 (Slater-type)  F U N C T I O N S  ***  (Basis and Fit)  ***
 ================================
  

 Atom Type    1  (C)
 ==============

 Valence Basis Sets:   6
 -----------------------
   1 S    5.400000
   2 S    1.240000
   2 S    1.980000
   2 P    0.960000
   2 P    2.200000
   3 D    2.200000

 Frozen Core Shells
 ------------------
    S:  1


 BAS: List of all Elementary Cartesian Basis Functions
 =====================================================

 The numbering in the list below (to the right of the function characteristics) is referred
 to in print-outs of MO eigenvectors and Mulliken populations in the BAS representation
 (as contrasted to the SFO representation).

 Notes:
 1. The functions are characterized by a polynomial prefactor (powers of x,y,z and r) and
    an exponential decay factor alpha.
 2. Since the basis sets are specific for an atom TYPE, the individual functions occur on
    all atoms of that type.
 3. The word 'Core' in the left margin signals that it is a Core Function (CF) : not a
    degree of freedom in the valence set, but only used to ensure orthogonalization of
    the other valence basis functions on the frozen Core Orbitals.


 (power of) X  Y  Z  R     Alpha  on Atom
            ==========     =====     ==========

 C                                    1
                                  ---------------------------------------------------------------------------
    Core    0  0  0  0     5.400      1
            0  0  0  1     1.240      2
            0  0  0  1     1.980      3
            1  0  0  0     0.960      4
            0  1  0  0     0.960      5
            0  0  1  0     0.960      6
            1  0  0  0     2.200      7
            0  1  0  0     2.200      8
            0  0  1  0     2.200      9
            2  0  0  0     2.200     10
            1  1  0  0     2.200     11
            1  0  1  0     2.200     12
            0  2  0  0     2.200     13
            0  1  1  0     2.200     14
            0  0  2  0     2.200     15

 Total number of charge fitting functions (nprimf)        82
 Total number of Cartesian basis functions (naos)         15
 Total number of Cartesian core functions  (ncos)          1



 BAS: List of all Elementary Cartesian Basis Functions
 =====================================================

 The numbering in the list below (to the right of the function characteristics) is referred
 to in print-outs of MO eigenvectors and Mulliken populations in the BAS representation
 (as contrasted to the SFO representation).

 Notes:
 1. The functions are characterized by a polynomial prefactor (powers of x,y,z and r) and
    an exponential decay factor alpha.
 2. Since the basis sets are specific for an atom TYPE, the individual functions occur on
    all atoms of that type.
 3. The word 'Core' in the left margin signals that it is a Core Function (CF) : not a
    degree of freedom in the valence set, but only used to ensure orthogonalization of
    the other valence basis functions on the frozen Core Orbitals.


 (power of) X  Y  Z  R     Alpha  on Atom
            ==========     =====     ==========

 C                                    1
                                  ---------------------------------------------------------------------------
    Core    0  0  0  0     5.400      1
            0  0  0  1     1.240      2
            0  0  0  1     1.980      3
            1  0  0  0     0.960      4
            0  1  0  0     0.960      5
            0  0  1  0     0.960      6
            1  0  0  0     2.200      7
            0  1  0  0     2.200      8
            0  0  1  0     2.200      9
            2  0  0  0     2.200     10
            1  1  0  0     2.200     11
            1  0  1  0     2.200     12
            0  2  0  0     2.200     13
            0  1  1  0     2.200     14
            0  0  2  0     2.200     15
1
 ***************************************************************************************************



                                              ***********************
                                              *  T E C H N I C A L  *
                                              ***********************
  



 =============================================================
 P A R A L L E L I Z A T I O N  and  V E C T O R I Z A T I O N
 =============================================================
  
 Nr of parallel processes:                                1
 Maximum vector length in NumInt loops:                 128



 =====================
 S C F   U P D A T E S
 =====================
  
 Max. nr. of cycles:                               300
 Convergence criterion:                              0.0000000100
   secondary criterion:                              0.0000000100

 Mix parameter (when DIIS does not apply):           0.2000000000
 Special mix parameter for the first cycle:          1.0000000000
 Mixed ADIIS+SDIIS will be used                  
    Max number of expansion vectors:                10
    Pure ADIIS when Max([F,P]) is above              0.1000000000
    Pure SDIIS when Max([F,P]) is below              0.0010000000
 Automatic ElectronSmearing (in case of problematic SCF convergence) disabled



 =================
 P R E C I S I O N  ***  (General: NumInt, NeglectFunctionTails, ...)  ***
 =================
  

 NumInt:           Target precision:                12.0000000000
 -------           Initial precision:               10.0000000000
                   Min. precision (optimization):   10.0000000000

 Neglect Functions:          Basis functions:        0.1000000000E-13
 ------------------          Fit functions:          0.1000000000E-13



 ===========================
 L I N E A R   S C A L I N G
 ===========================
  

 Cut-off radii density fit:                        0.1000000000E-97
 Overlap cut-off criterion AO matrix elements:     0.1000000000E-97
 Cut-offs for Coulomb potential and fitted density:0.1000000000E-97
 Cut-off criterion for Coulomb multipole terms:    0.1000000000E-97
 Progressive Convergence parameter:                 0.000000000    
1
 ***************************************************************************************************



                                            ***************************
                                            *  C O M P U T A T I O N  *
                                            ***************************
  

 Number of elements of the density matrix on this node (used, total):       120       120



 ===========================================
 Numerical Integration : Fuzzy Cells (Becke)
 ===========================================
  
 Becke grid quality: VERYGOOD       
  
 Lebedev angular grid order:             min:  13 max:  41
 Nr. of radial points:                   min:  68 max:  68

 Total nr. of points:         68
 Nr. of blocks:                1
 Block length:                68
 Nr. of dummy points:          0


 Test of Precision of the Numerical Integration Grid
 ===================================================

 Integral of the Total Core Density:                   1.99999999948618
 Relative Error:                                      -2.569E-10



 ========================
 Density Fitting (zlmFit)
 ========================
  
 ZlmFit Fit Quality: VERYGOOD       
  
 Max L-expansion:                        min:   0 max:   0
 Nr. of radial interpolation points:     min: 140 max: 140



 =====
 S C F  ***  ScaSCF  ***
 =====
  

 CYCLE    1
 SCF Error: norm([F,P])=      0.000000000000, max([F,P])=      0.000000000000
 orbitals (Q,E):
 ---------------
 S :1...2            ( 2.00    -2.5164)  ( 0.00    -0.9879)
 P :1...2            ( 2.00    -2.2831)  ( 0.00    -0.9523)
 D :1...1            ( 0.00    -0.6056)

 CYCLE    2
 SCF Error: norm([F,P])=      0.960645301987, max([F,P])=      0.851325061988
 orbitals (Q,E):
 ---------------
 S :1...2            ( 2.00    -0.1780)  ( 0.00     0.8257)
 P :1...2            ( 2.00     0.0804)  ( 0.00     0.8515)
 D :1...1            ( 0.00     1.5679)

 CYCLE    3
  SDIIS (wt  0.000):  0.4220  0.5780
 A-DIIS (wt  1.000):  0.2131  0.7869
  DIIS coefficients:  0.2131  0.7869
 SCF Error: norm([F,P])=      0.701489587342, max([F,P])=      0.611019081145
 orbitals (Q,E):
 ---------------
 S :1...2            ( 2.00    -0.6347)  ( 0.00     0.3799)
 P :1...2            ( 2.00    -0.3272)  ( 0.00     0.3367)
 D :1...1            ( 0.00     1.1079)

 CYCLE    4
  SDIIS (wt  0.000):  0.2595  0.7405
 A-DIIS (wt  1.000):  0.0000  1.0000
  DIIS coefficients:  0.0000  1.0000
 SCF Error: norm([F,P])=      0.246214283804, max([F,P])=      0.204605615018
 orbitals (Q,E):
 ---------------
 S :1...2            ( 2.00    -0.4204)  ( 0.00     0.5449)
 P :1...2            ( 2.00    -0.1252)  ( 0.00     0.5195)
 D :1...1            ( 0.00     1.3121)

 CYCLE    5
  SDIIS (wt  0.000):  0.4452  0.5548
 A-DIIS (wt  1.000):  0.3619  0.6381
  DIIS coefficients:  0.3619  0.6381
 SCF Error: norm([F,P])=      0.197599865654, max([F,P])=      0.165782303331
 orbitals (Q,E):
 ---------------
 S :1...2            ( 2.00    -0.5212)  ( 0.00     0.4582)
 P :1...2            ( 2.00    -0.2179)  ( 0.00     0.4209)
 D :1...1            ( 0.00     1.2144)

 CYCLE    6
  SDIIS (wt  0.778):  0.1227  0.8773
 A-DIIS (wt  0.222):  0.0000  1.0000
  DIIS coefficients:  0.0955  0.9045
 SCF Error: norm([F,P])=      0.027641573860, max([F,P])=      0.022979705586
 orbitals (Q,E):
 ---------------
 S :1...2            ( 2.00    -0.5058)  ( 0.00     0.4702)
 P :1...2            ( 2.00    -0.2034)  ( 0.00     0.4343)
 D :1...1            ( 0.00     1.2292)

 CYCLE    7
  SDIIS (wt  0.968):  0.1532  0.8468
 A-DIIS (wt  0.032):  0.0000  1.0000
  DIIS coefficients:  0.1483  0.8517
 SCF Error: norm([F,P])=      0.005001512209, max([F,P])=      0.004172077002
 orbitals (Q,E):
 ---------------
 S :1...2            ( 2.00    -0.5081)  ( 0.00     0.4683)
 P :1...2            ( 2.00    -0.2056)  ( 0.00     0.4321)
 D :1...1            ( 0.00     1.2270)

 CYCLE    8
  SDIIS (wt  1.000):  0.0219  0.9781
  DIIS coefficients:  0.0219  0.9781
 SCF Error: norm([F,P])=      0.000112174341, max([F,P])=      0.000093369401
 orbitals (Q,E):
 ---------------
 S :1...2            ( 2.00    -0.5080)  ( 0.00     0.4683)
 P :1...2            ( 2.00    -0.2055)  ( 0.00     0.4321)
 D :1...1            ( 0.00     1.2270)

 CYCLE    9
  SDIIS (wt  1.000):  0.0020  0.9980
  DIIS coefficients:  0.0020  0.9980
 SCF Error: norm([F,P])=      0.000000226597, max([F,P])=      0.000000188918
 orbitals (Q,E):
 ---------------
 S :1...2            ( 2.00    -0.5080)  ( 0.00     0.4683)
 P :1...2            ( 2.00    -0.2055)  ( 0.00     0.4321)
 D :1...1            ( 0.00     1.2270)

 CYCLE   10
  SDIIS (wt  1.000): -0.0015  1.0015
  DIIS coefficients: -0.0015  1.0015
 SCF Error: norm([F,P])=      0.000000000345, max([F,P])=      0.000000000287
 orbitals (Q,E):
 ---------------
 S :1...2            ( 2.00    -0.5080)  ( 0.00     0.4683)
 P :1...2            ( 2.00    -0.2055)  ( 0.00     0.4321)
 D :1...1            ( 0.00     1.2270)

 SCF CONVERGED

 CYCLE   11
1
 ***************************************************************************************************



                                                *******************
                                                *  R E S U L T S  *
                                                *******************
  
 *** Using FIT density in Focky
  SDIIS (wt  1.000):  0.0026  0.9974
  DIIS coefficients:  0.0026  0.9974
 SCF Error: norm([F,P])=      0.000000000001, max([F,P])=      0.000000000001

 Scaled ZORA Orbital Energies, per Irrep and Spin:
 =================================================
                        Occup              E (au)              E (eV)       Diff (eV) with prev. cycle
                        -----      --------------------        ------       --------------------------
 S
               1        2.000     -0.50804591448884E+00       -13.825               1.19E-11
               2        0.000      0.46834822544700E+00        12.744
 P
               1        2.000     -0.20553318204103E+00        -5.593               1.13E-11
               2        0.000      0.43213296395784E+00        11.759
 D
               1        0.000      0.12270302532845E+01        33.389


 Partially Occupied:
               1 P                -0.20553318204103E+00
  
 HOMO :        1 S                -0.50804591448884E+00
 LUMO :        2 P                 0.43213296395784E+00
  


 Orbital Energies, all Irreps
 ========================================

 Irrep        no.  (spin)   Occup              E (au)                E (eV)
 ---------------------------------------------------------------------------
 S             1             2.00       -0.50804591448884E+00       -13.8246
 P             1             2.00       -0.20553318204103E+00        -5.5928
 P             2             0.00        0.43213296395784E+00        11.7589
 S             2             0.00        0.46834822544700E+00        12.7444
 D             1             0.00        0.12270302532845E+01        33.3892


 Scaled ZORA Orbital Energies of the Core Orbitals:
 ==================================================

 (Note that the atoms are grouped by atomtype, see the labels, and may hence NOT be in input order)

 AtomType  Orbital  Atom                   E (au)                        E (eV)
 --------  -------  ----           --------------------        ----------------
 C           1S        1          -0.99571453421156E+01                -270.948



 =======================================
 M U L L I K E N   P O P U L A T I O N S
 =======================================
  
 The survey below gives for each atom:
 a) the total charge (Z minus electrons)
 b) the net spin polarization (nr of electrons spin-A minus spin-B)
 c) for each spin the atomic electron valence density (integrated) per L-value.

 Atom              Charge    Spin density          S         P         D         F
 ----              ------    ------------       ------    ------    ------    ------
 1 C              -0.0000                       2.0000    2.0000    0.0000    0.0000

 Populations of individual BAS functions
 ----------------------------------------
 1 C            0.0006  0.9028  1.0966  0.3610  0.3610  0.3610  0.3057  0.3057  0.3057  0.0000
                0.0000  0.0000  0.0000  0.0000  0.0000

 Gross Charges per Atom (Z minus electrons)
 ==========================================
            -0.0000
 Net Total: -0.00000000



 =======================================================================
 Electrostatic potential at the Nuclei due to electrons and other nuclei
 =======================================================================
  
         Atom                  Potential
         ----                  ---------
     1)   C                  14.62326218


 ========================
 No memory problems found
 ========================

 Maximum number of active allocate calls:         392

 *******************************************************************************

                             A D F   E X I T
 NORMAL TERMINATION



 =================
 Timing Statistics
 =================
  
 Total Used :                     CPU=        0.30      System=        0.01     Elapsed=        0.31

 Calls  Section                     ( Mean, Percentage )
 ---------------------------------------------------------------------------------------------------
     3  ><      ................      0.00    0.74             0.00    0.00             0.00    0.72
     1  INIT    ................      0.05   17.23             0.00    0.00             0.05   16.96
     1  GEOMET  ................      0.01    4.26             0.00    0.00             0.01    4.15
     1  INPUTA  ................      0.00    0.84             0.00    0.00             0.00    0.81
     1  MAINSY  ................      0.01    2.63             0.00    0.00             0.01    2.56
     1  SYMFIT  ................      0.00    0.20             0.00    0.00             0.00    0.19
     1  CORORT  ................      0.00    0.23             0.00    0.00             0.00    0.22
     1  SYMORB  ................      0.00    0.18             0.00    0.00             0.00    0.17
     1  CLSMAT  ................      0.00    1.13             0.00    0.00             0.00    1.10
     1  ORTHON  ................      0.00    1.29             0.00    0.00             0.00    1.26
     1  GENPT   ................      0.01    2.63             0.00    2.50             0.01    2.62
     1  PTBAS   ................      0.00    0.00             0.00   34.12             0.00    0.86
    11  FOCKY   ................      0.01   54.15             0.00   59.45             0.02   54.18
    11  FOCKTR  ................      0.00    1.06             0.00    3.92             0.00    1.13
    11  SDIIS   ................      0.00    5.26             0.00    0.01             0.00    5.12
     1  COREPS  ................      0.01    3.19             0.00    0.00             0.01    3.10
     1  POPAN   ................      0.00    0.97             0.00    0.00             0.00    0.95
     1  DEBYE   ................      0.00    0.34             0.00    0.00             0.00    0.33
     1  EXIT PROCEDURE .........      0.01    3.66             0.00    0.00             0.01    3.57


 Currently Open Files (EXIT00)
 ====================

 Unit    Access Format  Status   Type       Ident (file)
 -------------------------------------------------------
   3      SEQ    FORM   TRANSP  NORMAL      LOGFILE
                                          ( logfile )

 ***************************************************************************************************
 (LOGFILE)
 <Oct20-2020> <23:19:54>  DIRAC  RunTime: Oct20-2020 23:19:54  Nodes: 1  Procs: 1
 <Oct20-2020> <23:19:54>  NORMAL TERMINATION
 <Oct20-2020> <23:19:54>  END
 <Oct20-2020> <23:19:54>  ADF  RunTime: Oct20-2020 23:19:54  Nodes: 1  Procs: 1
 <Oct20-2020> <23:19:54>  Silver (TZP, 4p frozen)
 <Oct20-2020> <23:19:54>  RunType   : CREATE
 <Oct20-2020> <23:19:54>  Net Charge: 0 (Nuclei minus Electrons)
 <Oct20-2020> <23:19:54>  Symmetry  : ATOM
  Coordinates
    Atom         X           Y           Z   (Angstrom)
    1.Ag        0.000000    0.000000    0.000000
 <Oct20-2020> <23:19:54>  >>>> CORORT
 <Oct20-2020> <23:19:54>  >>>> CLSMAT
 <Oct20-2020> <23:19:54>  >>>> ORTHON
 <Oct20-2020> <23:19:54>  >>>> GENPT
 <Oct20-2020> <23:19:54>  Block Length= 115
 <Oct20-2020> <23:19:54>  >>>> PTBAS
 <Oct20-2020> <23:19:54>  >>>> CYCLE
 <Oct20-2020> <23:19:55>              |Error|         MaxErr       Wt(A-DIIS)
 <Oct20-2020> <23:19:55>      1      0.00000000      0.00000000
 <Oct20-2020> <23:19:55>      2      6.32869465      2.07061885    100.0
 <Oct20-2020> <23:19:55>      3      3.14343756      1.14714877    100.0
 <Oct20-2020> <23:19:55>      4      2.39408763      0.73015121    100.0
 <Oct20-2020> <23:19:55>      5      0.38312557      0.14479171    100.0
 <Oct20-2020> <23:19:55>      6      0.60765847      0.21771568    100.0
 <Oct20-2020> <23:19:55>      7      0.11974773      0.04496254     44.4
 <Oct20-2020> <23:19:55>      8      0.05643150      0.02136270     20.6
 <Oct20-2020> <23:19:55>      9      0.02046205      0.00769121      6.8
 <Oct20-2020> <23:19:55>     10      0.00254428      0.00095456      0.0
 <Oct20-2020> <23:19:55>     11      0.00004600      0.00001829      0.0
 <Oct20-2020> <23:19:55>     12      0.00000056      0.00000020      0.0
 <Oct20-2020> <23:19:55>     13      0.00000000      0.00000000      0.0
 <Oct20-2020> <23:19:55>  SCF converged
 <Oct20-2020> <23:19:55>     14      0.00000000      0.00000000      0.0
 <Oct20-2020> <23:19:55>  >>>> POPAN
 <Oct20-2020> <23:19:55>  >>>> DEBYE
 <Oct20-2020> <23:19:55>  NORMAL TERMINATION
 <Oct20-2020> <23:19:55>  END
 <Oct20-2020> <23:19:55>  DIRAC  RunTime: Oct20-2020 23:19:55  Nodes: 1  Procs: 1
 <Oct20-2020> <23:19:55>  NORMAL TERMINATION
 <Oct20-2020> <23:19:55>  END
 <Oct20-2020> <23:19:55>  ADF  RunTime: Oct20-2020 23:19:55  Nodes: 1  Procs: 1
 <Oct20-2020> <23:19:55>  Carbon (DZP, 1s frozen)
 <Oct20-2020> <23:19:55>  RunType   : CREATE
 <Oct20-2020> <23:19:55>  Net Charge: 0 (Nuclei minus Electrons)
 <Oct20-2020> <23:19:55>  Symmetry  : ATOM
  Coordinates
    Atom         X           Y           Z   (Angstrom)
    1.C         0.000000    0.000000    0.000000
 <Oct20-2020> <23:19:55>  >>>> CORORT
 <Oct20-2020> <23:19:55>  >>>> CLSMAT
 <Oct20-2020> <23:19:55>  >>>> ORTHON
 <Oct20-2020> <23:19:55>  >>>> GENPT
 <Oct20-2020> <23:19:55>  Block Length=  68
 <Oct20-2020> <23:19:55>  >>>> PTBAS
 <Oct20-2020> <23:19:55>  >>>> CYCLE
 <Oct20-2020> <23:19:55>              |Error|         MaxErr       Wt(A-DIIS)
 <Oct20-2020> <23:19:55>      1      0.00000000      0.00000000
 <Oct20-2020> <23:19:55>      2      0.96064530      0.85132506
 <Oct20-2020> <23:19:56>      3      0.70148959      0.61101908    100.0
 <Oct20-2020> <23:19:56>      4      0.24621428      0.20460562    100.0
 <Oct20-2020> <23:19:56>      5      0.19759987      0.16578230    100.0
 <Oct20-2020> <23:19:56>      6      0.02764157      0.02297971     22.2
 <Oct20-2020> <23:19:56>      7      0.00500151      0.00417208      3.2
 <Oct20-2020> <23:19:56>      8      0.00011217      0.00009337      0.0
 <Oct20-2020> <23:19:56>      9      0.00000023      0.00000019      0.0
 <Oct20-2020> <23:19:56>     10      0.00000000      0.00000000      0.0
 <Oct20-2020> <23:19:56>  SCF converged
 <Oct20-2020> <23:19:56>     11      0.00000000      0.00000000      0.0
 <Oct20-2020> <23:19:56>  >>>> POPAN
 <Oct20-2020> <23:19:56>  >>>> DEBYE
 <Oct20-2020> <23:19:56>  NORMAL TERMINATION
 <Oct20-2020> <23:19:56>  END

 *******************************************************************************
 *                                                                             *
 *  -------------------------------------                                      *
 *   Amsterdam Density Functional  (ADF)                                       *
 *  -------------------------------------                                      *
 *                                               r                             *
 *                                                                             *
 *                                                                             *
 *                            =====================                            *
 *                            |                   |                            *
 *                            |     D I R A C     |                            *
 *                            |                   |                            *
 *                            =====================                            *
 *                                                                             *
 *                                                                             *
 *   Online information and documentation:  https://www.scm.com/support/       *
 *   E-mail:  support@scm.com   info@scm.com                                   *
 *                                                                             *
 *   Scientific publications using ADF results must be properly referenced     *
 *   See the User Manuals (or the web site) for recommended citations          *
 *   The terms and conditions of the End User License Agreement apply to       *
 *   the use of ADF, https://www.scm.com/license-terms/                        *
 *                                                                             *
 ************************  x86_64_linux_gnu / openmpi  *************************
 
 Licensed to: Prof. Lasse Jensen / Penn State University / University Park / PA  / USA
 SCM User ID: u8493
  
 DIRAC  RunTime: Oct20-2020 23:19:56  Nodes: 1  Procs: 1

 Temporary files are created in /scratch/kid_0.578080294

1
 OXYGEN ATOM 1s CORE RELATIVISTIC, Point Nuc, A and c from li
 N J RN H ZN XION ANUC CLIGHT
 5000    4100.00000000197.36710137  8.00000000  0.00000000   15.994914  0.1370360E+03
  PH   PHI     EPS        DEL        DELRVR
  0.30  0.30     2500.00  0.00001000  0.00001000
 IDIRC  NC1  NDEBU NPRIN  IPUN IRCOR IWCOR
   1   300     0     0     0     0     1
   XALPHA      XLATTER      RNUC
  0.70000000  0.00000000  0.00000000 Point Charge
   XN   XL   XJ      XE          XZ      XDELL
  1.0  0.0  0.5      -5.000       2.000     0.00000
  2.0  0.0  0.5      -1.000       2.000     0.00000
  2.0  1.0  0.5      -1.000       2.000     0.00000
  2.0  1.0  1.5      -1.000       2.000     0.00000
 ICORP=  0  NPCL=  0  DEMP=0.00  PEPS=0.000000
 R(1)=  0.1000000E-08 D=  0.1005080E+01 RNUC=  0.0000000E+00
 converged at cycle   28  DENSITY AVERAGING    0.2400
  MAXIMUM ERROR IN R.V(R) IS   0.81125667E-05
 Q,EY,EV,EZ,ESUM,ETOT,RHO  0.800000E+01 -0.101247E+02 -0.114961E+03 -0.177573E+03 -0.405053E+02 -0.743427E+02  0.414766E-14


 DIRAC CALCULATION
1                    OXYGEN ATOM 1s CORE RELATIVISTIC, Point Nuc, A and c from libtc


 EXCHANGE COEFFICIENT=  0.7000000           TAIL CORRECTION=  0.           NUCLEAR RADIUS=  0.000E+00
0                       ORBITAL    N    L    J     ELECTRONS     EIGENVALUE                DELTA OF EIGENV.

                          1S1/2  1.0  0.0  0.5     2.000       -0.1880014E+02                 0.7264352E-06
                          2S1/2  2.0  0.0  0.5     2.000       -0.8412236E+00                 0.5932751E-05
                          2P1/2  2.0  1.0  0.5     2.000       -0.3063203E+00                 0.5998471E-05
                          2P3/2  2.0  1.0  1.5     2.000       -0.3049609E+00                 0.5986970E-05


                                        NUCLEAR CHARGE=    8.000000
                            INTEGRAL OF CHARGE DENSITY=    8.000000
                           SUM OF THE ORBITAL ENERGIES=    -40.5053
                                          TOTAL ENERGY=    -74.3427
                                        KINETIC ENERGY=     74.4552
                             NUCLEAR ATTRACTION ENERGY=   -177.5730
                             ELECTRON REPULSION ENERGY=     36.3686
                                       EXCHANGE ENERGY=     -7.5935

 *******************************************************************************

                             D I R A C   E X I T
 NORMAL TERMINATION



 =================
 Timing Statistics
 =================
  
 Total Used :                     CPU=        0.07      System=        0.00     Elapsed=        0.08

 Calls  Section                     ( Mean, Percentage )
 ---------------------------------------------------------------------------------------------------
     2  ><      ................      0.00    0.00             0.00    0.00             0.00    0.01
     1  EXIT PROCEDURE .........      0.07  100.00             0.00  100.00             0.08   99.99


 Currently Open Files (EXIT00)
 ====================

 Unit    Access Format  Status   Type       Ident (file)
 -------------------------------------------------------
   3      SEQ    FORM   TRANSP  NORMAL      LOGFILE
                                          ( logfile )

Create O   file=DZP-O.1s
xc
  LDA
End
relativistic ZORA
Corepotentials t12.rel
End

 *******************************************************************************
 *                                                                             *
 *  -------------------------------------                                      *
 *   Amsterdam Density Functional  (ADF)                                       *
 *  -------------------------------------                                      *
 *                                               r                             *
 *                                                                             *
 *                                                                             *
 *                              =================                              *
 *                              |               |                              *
 *                              |     A D F     |                              *
 *                              |               |                              *
 *                              =================                              *
 *                                                                             *
 *                                                                             *
 *   Online information and documentation:  https://www.scm.com/support/       *
 *   E-mail:  support@scm.com   info@scm.com                                   *
 *                                                                             *
 *   Scientific publications using ADF results must be properly referenced     *
 *   See the User Manuals (or the web site) for recommended citations          *
 *   The terms and conditions of the End User License Agreement apply to       *
 *   the use of ADF, https://www.scm.com/license-terms/                        *
 *                                                                             *
 ************************  x86_64_linux_gnu / openmpi  *************************
 
 Licensed to: Prof. Lasse Jensen / Penn State University / University Park / PA  / USA
 SCM User ID: u8493
  
 ADF  RunTime: Oct20-2020 23:19:56  Nodes: 1  Procs: 1

 Temporary files are created in /scratch/kid_0.2114596254

 Oxygen (DZP, 1s frozen)



 ===========================
 A T T A C H E D   F I L E S
 ===========================
  
 CREATE - Data File:    DZP-O.1s
                        Oxygen (DZP, 1s frozen)
 Core Potentials:
         file : t12.rel



 ===============================
 M O D E L   P A R A M E T E R S
 ===============================
  
 DENSITY FUNCTIONAL POTENTIAL (scf)
    LDA:                               VWN                                      
    Gradient Corrections:              ---                                      

 SPIN  (restricted / unrestr.)
    Molecule:                          Restricted                               

 OTHER ASPECTS
    Relativistic Corrections:          scalar (ZORA,MAPA)                      == Not Default ==

    Nuclear Charge Density Model:      Point Charge Nuclei                      
    Core Treatment:                    Frozen Orbital(s)                        

    Hyperfine or Zeeman Interaction:   ---                                      



 =====================================
 S Y M M E T R Y ,   E L E C T R O N S
 =====================================
  
 Symmetry: ATOM

 Irreducible Representations, including subspecies
 -------------------------------------------------
 S
 P:x  P:y  P:z
 D:z2  D:x2-y2  D:xy  D:xz  D:yz
 F:z3  F:z  F:xyz  F:z2x  F:z2y  F:x  F:y


 Configuration of Valence Electrons
 ==================================

          Occupation Numbers
          -------------------------------------------------
 S        2
 P        4
 D        0
 F        0
          -------------------------------------------------

 Total:   6

 Net Charge: 0 (Nuclei minus Electrons)

 Preset values for MO occupations will be applied through SCF cycle no. 1000000
 Thereafter, the program will assign electrons to MOs that are spatially
 similar to the occupied MOs in a "reference" cycle ("KeepOrbitals").
 The reference cycle is always the PREVIOUS cycle: it will evolve with
 the SCF procedure.



 ================================
 (Slater-type)  F U N C T I O N S  ***  (Basis and Fit)  ***
 ================================
  

 Atom Type    1  (O)
 ==============

 Valence Basis Sets:   6
 -----------------------
   1 S    7.360000
   2 S    1.700000
   2 S    2.820000
   2 P    1.300000
   2 P    3.060000
   3 D    2.000000

 Frozen Core Shells
 ------------------
    S:  1


 BAS: List of all Elementary Cartesian Basis Functions
 =====================================================

 The numbering in the list below (to the right of the function characteristics) is referred
 to in print-outs of MO eigenvectors and Mulliken populations in the BAS representation
 (as contrasted to the SFO representation).

 Notes:
 1. The functions are characterized by a polynomial prefactor (powers of x,y,z and r) and
    an exponential decay factor alpha.
 2. Since the basis sets are specific for an atom TYPE, the individual functions occur on
    all atoms of that type.
 3. The word 'Core' in the left margin signals that it is a Core Function (CF) : not a
    degree of freedom in the valence set, but only used to ensure orthogonalization of
    the other valence basis functions on the frozen Core Orbitals.


 (power of) X  Y  Z  R     Alpha  on Atom
            ==========     =====     ==========

 O                                    1
[...]
2151:     3.17373     86.36169    0.000                   A           
2152:     3.17540     86.40697    0.000                   A           
2153:     3.17543     86.40793    0.000                   A           
2154:     3.17543     86.40793    0.000                   A           
2155:     3.19905     87.05053    0.000                   A           
2156:     3.19984     87.07200    0.000                   A           
2157:     3.19984     87.07200    0.000                   A           
2158:     3.20074     87.09658    0.000                   A           
2159:     3.20108     87.10577    0.000                   A           
2160:     3.20108     87.10577    0.000                   A           
2161:     3.21148     87.38873    0.000                   A           
2162:     3.21850     87.57975    0.000                   A           
2163:     3.21850     87.57975    0.000                   A           
2164:     3.22828     87.84593    0.000                   A           
2165:     3.22828     87.84598    0.000                   A           
2166:     3.23280     87.96888    0.000                   A           
2167:     3.23280     87.96891    0.000                   A           
2168:     3.23825     88.11727    0.000                   A           
2169:     3.23825     88.11727    0.000                   A           
2170:     3.23921     88.14331    0.000                   A           
2171:     3.23986     88.16096    0.000                   A           
2172:     3.23986     88.16097    0.000                   A           
2173:     3.25993     88.70729    0.000                   A           
2174:     3.25993     88.70729    0.000                   A           
2175:     3.27359     89.07903    0.000                   A           
2176:     3.28126     89.28756    0.000                   A           
2177:     3.28286     89.33121    0.000                   A           
2178:     3.28286     89.33121    0.000                   A           
2179:     3.28411     89.36530    0.000                   A           
2180:     3.28412     89.36534    0.000                   A           
2181:     3.29218     89.58485    0.000                   A           
2182:     3.29681     89.71069    0.000                   A           
2183:     3.29681     89.71077    0.000                   A           
2184:     3.30123     89.83109    0.000                   A           
2185:     3.30123     89.83109    0.000                   A           
2186:     3.30288     89.87586    0.000                   A           
2187:     3.30288     89.87586    0.000                   A           
2188:     3.30709     89.99044    0.000                   A           
2189:     3.32380     90.44512    0.000                   A           
2190:     3.32380     90.44519    0.000                   A           
2191:     3.33292     90.69327    0.000                   A           
2192:     3.33292     90.69327    0.000                   A           
2193:     3.35245     91.22494    0.000                   A           
2194:     3.37170     91.74875    0.000                   A           
2195:     3.37836     91.92979    0.000                   A           
2196:     3.37837     91.93008    0.000                   A           
2197:     3.39563     92.39971    0.000                   A           
2198:     3.39563     92.39971    0.000                   A           
2199:     3.40751     92.72303    0.000                   A           
2200:     3.41492     92.92472    0.000                   A           
2201:     3.41492     92.92472    0.000                   A           
2202:     3.41594     92.95258    0.000                   A           
2203:     3.42505     93.20037    0.000                   A           
2204:     3.42505     93.20043    0.000                   A           
2205:     3.42570     93.21808    0.000                   A           
2206:     3.42968     93.32624    0.000                   A           
2207:     3.42968     93.32627    0.000                   A           
2208:     3.43436     93.45380    0.000                   A           
2209:     3.43436     93.45380    0.000                   A           
2210:     3.43523     93.47737    0.000                   A           
2211:     3.43664     93.51579    0.000                   A           
2212:     3.43664     93.51580    0.000                   A           
2213:     3.44080     93.62896    0.000                   A           
2214:     3.44437     93.72608    0.000                   A           
2215:     3.44437     93.72608    0.000                   A           
2216:     3.45656     94.05780    0.000                   A           
2217:     3.45656     94.05780    0.000                   A           
2218:     3.45823     94.10318    0.000                   A           
2219:     3.45826     94.10410    0.000                   A           
2220:     3.46973     94.41614    0.000                   A           
2221:     3.48096     94.72183    0.000                   A           
2222:     3.48096     94.72187    0.000                   A           
2223:     3.48602     94.85933    0.000                   A           
2224:     3.48851     94.92729    0.000                   A           
2225:     3.49714     95.16211    0.000                   A           
2226:     3.49714     95.16211    0.000                   A           
2227:     3.51912     95.76015    0.000                   A           
2228:     3.51912     95.76015    0.000                   A           
2229:     3.53094     96.08186    0.000                   A           
2230:     3.62423     98.62040    0.000                   A           
2231:     3.64662     99.22963    0.000                   A           
2232:     3.64662     99.22963    0.000                   A           
2233:     3.65463     99.44750    0.000                   A           
2234:     3.65463     99.44750    0.000                   A           
2235:     3.73063    101.51558    0.000                   A           
2236:     3.83261    104.29049    0.000                   A           
2237:     3.83429    104.33633    0.000                   A           
2238:     3.83429    104.33633    0.000                   A           
2239:     3.96707    107.94939    0.000                   A           
2240:     4.07552    110.90043    0.000                   A           
2241:     4.27995    116.46337    0.000                   A           

 tau: electric dipole radiative lifetime (in seconds)


 Normal termination of EXCITATION program part





 =======================================================================
 Electrostatic potential at the Nuclei due to electrons and other nuclei
 =======================================================================
  
         Atom                  Potential
         ----                  ---------
     1)   O                  22.15720239
     2)   C                  14.58465003
     3)   Ag                274.21456671
     4)   Ag                274.27663058
     5)   Ag                274.27608084
     6)   Ag                274.27591267


 ========================
 No memory problems found
 ========================

 Maximum number of active allocate calls:        1311

 *******************************************************************************

                             A D F   E X I T
 NORMAL TERMINATION



 =================
 Timing Statistics
 =================
  
 Total Used :                     CPU=     6146.47      System=       29.70     Elapsed=     6180.48

 Calls  Section                     ( Mean, Percentage )
 ---------------------------------------------------------------------------------------------------
     3  ><      ................      0.00    0.00             0.00    0.00             0.00    0.00
     1  INIT    ................      0.41    0.01             0.05    0.16             0.46    0.01
     1  GEOMET  ................      0.02    0.00             0.01    0.02             0.03    0.00
     1  FRAGM   ................      0.03    0.00             0.02    0.07             0.05    0.00
     1  INPUTA  ................      0.00    0.00             0.00    0.00             0.00    0.00
     1  ATDEN   ................      0.01    0.00             0.00    0.00             0.01    0.00
     1  MAINSY  ................      0.02    0.00             0.00    0.01             0.02    0.00
     1  SYMFIT  ................      0.00    0.00             0.00    0.00             0.00    0.00
     1  CORORT  ................      0.01    0.00             0.00    0.00             0.01    0.00
     1  SYMORB  ................      0.00    0.00             0.00    0.00             0.00    0.00
     1  CLSMAT  ................      0.01    0.00             0.00    0.00             0.01    0.00
     1  ORTHON  ................      0.01    0.00             0.00    0.00             0.01    0.00
     1  GENPT   ................      0.22    0.00             0.05    0.17             0.27    0.00
     1  PTBAS   ................      3.44    0.06             0.01    0.04             3.45    0.06
    20  FOCKY   ................      0.67    0.22             0.00    0.25             0.67    0.22
    20  FOCKTR  ................      0.00    0.00             0.00    0.01             0.00    0.00
    20  SDIIS   ................      0.00    0.00             0.00    0.02             0.00    0.00
     1  COREPS  ................      0.51    0.01             0.01    0.03             0.51    0.01
     1  TOTEN   ................      3.11    0.05             0.03    0.09             3.14    0.05
     1  POPAN   ................      0.01    0.00             0.00    0.00             0.01    0.00
     1  DEBYE   ................      0.01    0.00             0.00    0.00             0.01    0.00
     1  INPUTE  ................      0.00    0.00             0.00    0.00             0.00    0.00
     1  SYMORE  ................      0.00    0.00             0.00    0.00             0.00    0.00
     1  METS    ................      0.00    0.00             0.00    0.00             0.00    0.00
     1  CETS    ................      0.01    0.00             0.00    0.00             0.01    0.00
     1  ELNRGY  ................      0.01    0.00             0.00    0.00             0.01    0.00
     1  POPUL   ................      0.02    0.00             0.00    0.00             0.02    0.00
     1  EXCITATIONS ............   6125.12   99.65            29.42   99.06          6158.84   99.65
     1  EXIT PROCEDURE .........      0.06    0.00             0.01    0.03             0.06    0.00


 Currently Open Files (EXIT00)
 ====================

 Unit    Access Format  Status   Type       Ident (file)
 -------------------------------------------------------
   3      SEQ    FORM   TRANSP  NORMAL      LOGFILE
                                          ( logfile )

 ***************************************************************************************************
 (LOGFILE)
 <Oct20-2020> <23:19:54>  DIRAC  RunTime: Oct20-2020 23:19:54  Nodes: 1  Procs: 1
 <Oct20-2020> <23:19:54>  NORMAL TERMINATION
 <Oct20-2020> <23:19:54>  END
 <Oct20-2020> <23:19:54>  ADF  RunTime: Oct20-2020 23:19:54  Nodes: 1  Procs: 1
 <Oct20-2020> <23:19:54>  Silver (TZP, 4p frozen)
 <Oct20-2020> <23:19:54>  RunType   : CREATE
 <Oct20-2020> <23:19:54>  Net Charge: 0 (Nuclei minus Electrons)
 <Oct20-2020> <23:19:54>  Symmetry  : ATOM
  Coordinates
    Atom         X           Y           Z   (Angstrom)
    1.Ag        0.000000    0.000000    0.000000
 <Oct20-2020> <23:19:54>  >>>> CORORT
 <Oct20-2020> <23:19:54>  >>>> CLSMAT
 <Oct20-2020> <23:19:54>  >>>> ORTHON
 <Oct20-2020> <23:19:54>  >>>> GENPT
 <Oct20-2020> <23:19:54>  Block Length= 115
 <Oct20-2020> <23:19:54>  >>>> PTBAS
 <Oct20-2020> <23:19:54>  >>>> CYCLE
 <Oct20-2020> <23:19:55>              |Error|         MaxErr       Wt(A-DIIS)
 <Oct20-2020> <23:19:55>      1      0.00000000      0.00000000
 <Oct20-2020> <23:19:55>      2      6.32869465      2.07061885    100.0
 <Oct20-2020> <23:19:55>      3      3.14343756      1.14714877    100.0
 <Oct20-2020> <23:19:55>      4      2.39408763      0.73015121    100.0
 <Oct20-2020> <23:19:55>      5      0.38312557      0.14479171    100.0
 <Oct20-2020> <23:19:55>      6      0.60765847      0.21771568    100.0
 <Oct20-2020> <23:19:55>      7      0.11974773      0.04496254     44.4
 <Oct20-2020> <23:19:55>      8      0.05643150      0.02136270     20.6
 <Oct20-2020> <23:19:55>      9      0.02046205      0.00769121      6.8
 <Oct20-2020> <23:19:55>     10      0.00254428      0.00095456      0.0
 <Oct20-2020> <23:19:55>     11      0.00004600      0.00001829      0.0
 <Oct20-2020> <23:19:55>     12      0.00000056      0.00000020      0.0
 <Oct20-2020> <23:19:55>     13      0.00000000      0.00000000      0.0
 <Oct20-2020> <23:19:55>  SCF converged
 <Oct20-2020> <23:19:55>     14      0.00000000      0.00000000      0.0
 <Oct20-2020> <23:19:55>  >>>> POPAN
 <Oct20-2020> <23:19:55>  >>>> DEBYE
 <Oct20-2020> <23:19:55>  NORMAL TERMINATION
 <Oct20-2020> <23:19:55>  END
 <Oct20-2020> <23:19:55>  DIRAC  RunTime: Oct20-2020 23:19:55  Nodes: 1  Procs: 1
 <Oct20-2020> <23:19:55>  NORMAL TERMINATION
 <Oct20-2020> <23:19:55>  END
 <Oct20-2020> <23:19:55>  ADF  RunTime: Oct20-2020 23:19:55  Nodes: 1  Procs: 1
 <Oct20-2020> <23:19:55>  Carbon (DZP, 1s frozen)
 <Oct20-2020> <23:19:55>  RunType   : CREATE
 <Oct20-2020> <23:19:55>  Net Charge: 0 (Nuclei minus Electrons)
 <Oct20-2020> <23:19:55>  Symmetry  : ATOM
  Coordinates
    Atom         X           Y           Z   (Angstrom)
    1.C         0.000000    0.000000    0.000000
 <Oct20-2020> <23:19:55>  >>>> CORORT
 <Oct20-2020> <23:19:55>  >>>> CLSMAT
 <Oct20-2020> <23:19:55>  >>>> ORTHON
 <Oct20-2020> <23:19:55>  >>>> GENPT
 <Oct20-2020> <23:19:55>  Block Length=  68
 <Oct20-2020> <23:19:55>  >>>> PTBAS
 <Oct20-2020> <23:19:55>  >>>> CYCLE
 <Oct20-2020> <23:19:55>              |Error|         MaxErr       Wt(A-DIIS)
 <Oct20-2020> <23:19:55>      1      0.00000000      0.00000000
 <Oct20-2020> <23:19:55>      2      0.96064530      0.85132506
 <Oct20-2020> <23:19:56>      3      0.70148959      0.61101908    100.0
 <Oct20-2020> <23:19:56>      4      0.24621428      0.20460562    100.0
 <Oct20-2020> <23:19:56>      5      0.19759987      0.16578230    100.0
 <Oct20-2020> <23:19:56>      6      0.02764157      0.02297971     22.2
 <Oct20-2020> <23:19:56>      7      0.00500151      0.00417208      3.2
 <Oct20-2020> <23:19:56>      8      0.00011217      0.00009337      0.0
 <Oct20-2020> <23:19:56>      9      0.00000023      0.00000019      0.0
 <Oct20-2020> <23:19:56>     10      0.00000000      0.00000000      0.0
 <Oct20-2020> <23:19:56>  SCF converged
 <Oct20-2020> <23:19:56>     11      0.00000000      0.00000000      0.0
 <Oct20-2020> <23:19:56>  >>>> POPAN
 <Oct20-2020> <23:19:56>  >>>> DEBYE
 <Oct20-2020> <23:19:56>  NORMAL TERMINATION
 <Oct20-2020> <23:19:56>  END
 <Oct20-2020> <23:19:56>  DIRAC  RunTime: Oct20-2020 23:19:56  Nodes: 1  Procs: 1
 <Oct20-2020> <23:19:56>  NORMAL TERMINATION
 <Oct20-2020> <23:19:56>  END
 <Oct20-2020> <23:19:56>  ADF  RunTime: Oct20-2020 23:19:56  Nodes: 1  Procs: 1
 <Oct20-2020> <23:19:56>  Oxygen (DZP, 1s frozen)
 <Oct20-2020> <23:19:56>  RunType   : CREATE
 <Oct20-2020> <23:19:56>  Net Charge: 0 (Nuclei minus Electrons)
 <Oct20-2020> <23:19:56>  Symmetry  : ATOM
  Coordinates
    Atom         X           Y           Z   (Angstrom)
    1.O         0.000000    0.000000    0.000000
 <Oct20-2020> <23:19:56>  >>>> CORORT
 <Oct20-2020> <23:19:56>  >>>> CLSMAT
 <Oct20-2020> <23:19:56>  >>>> ORTHON
 <Oct20-2020> <23:19:56>  >>>> GENPT
 <Oct20-2020> <23:19:56>  Block Length=  68
 <Oct20-2020> <23:19:56>  >>>> PTBAS
 <Oct20-2020> <23:19:56>  >>>> CYCLE
 <Oct20-2020> <23:19:56>              |Error|         MaxErr       Wt(A-DIIS)
 <Oct20-2020> <23:19:56>      1      0.00000000      0.00000000
 <Oct20-2020> <23:19:56>      2      2.51396012      1.84561276
 <Oct20-2020> <23:19:56>      3      2.39439105      1.62820035    100.0
 <Oct20-2020> <23:19:56>      4      0.45589988      0.27619637    100.0
 <Oct20-2020> <23:19:56>      5      0.50298044      0.30702678    100.0
 <Oct20-2020> <23:19:56>      6      0.01864829      0.01143228     10.5
 <Oct20-2020> <23:19:56>      7      0.00209905      0.00128080      0.3
 <Oct20-2020> <23:19:56>      8      0.00000953      0.00000579      0.0
 <Oct20-2020> <23:19:56>      9      0.00000001      0.00000001      0.0
 <Oct20-2020> <23:19:56>  SCF converged
 <Oct20-2020> <23:19:56>     10      0.00000000      0.00000000      0.0
 <Oct20-2020> <23:19:56>  >>>> POPAN
 <Oct20-2020> <23:19:56>  >>>> DEBYE
 <Oct20-2020> <23:19:56>  NORMAL TERMINATION
 <Oct20-2020> <23:19:56>  END
 <Oct20-2020> <23:19:57>  ADF  RunTime: Oct20-2020 23:19:57  Nodes: 1  Procs: 6
 <Oct20-2020> <23:19:57>  *** (NO TITLE) ***
 <Oct20-2020> <23:19:57>  RunType   : SINGLE POINT
 <Oct20-2020> <23:19:57>  Net Charge: 0 (Nuclei minus Electrons)
 <Oct20-2020> <23:19:57>  Symmetry  : NOSYM
 <Oct20-2020> <23:19:57>  >>>> FRAGM
  Coordinates
    Atom         X           Y           Z   (Angstrom)
    1.O         0.000000    0.000000   -3.916100
    2.C         0.000000    0.000000   -2.777000
    3.Ag        0.000000    0.000000   -0.589300
    4.Ag        0.000000    0.000000    2.022900
    5.Ag        0.000000    0.000000    4.812200
    6.Ag        0.000000    0.000000    7.442100
 <Oct20-2020> <23:19:57>  >>>> CORORT
 <Oct20-2020> <23:19:57>  >>>> CLSMAT
 <Oct20-2020> <23:19:57>  >>>> ORTHON
 <Oct20-2020> <23:19:57>  >>>> GENPT
 <Oct20-2020> <23:19:57>  Block Length= 128
 <Oct20-2020> <23:19:58>  >>>> PTBAS
 <Oct20-2020> <23:20:01>  >>>> CYCLE
 <Oct20-2020> <23:20:02>              |Error|         MaxErr       Wt(A-DIIS)
 <Oct20-2020> <23:20:02>      1      0.92854683      0.40106705
 <Oct20-2020> <23:20:02>      2      0.59810028      0.18373809    100.0
 <Oct20-2020> <23:20:03>      3      1.79455380      0.80814202    100.0
 <Oct20-2020> <23:20:04>      4      0.54843585      0.16568855    100.0
 <Oct20-2020> <23:20:04>      5      0.13743008      0.03663175     36.0
 <Oct20-2020> <23:20:05>      6      0.13991858      0.03497911     34.3
 <Oct20-2020> <23:20:06>      7      0.02797562      0.00623854      5.3
 <Oct20-2020> <23:20:06>      8      0.01109512      0.00404622      3.1
 <Oct20-2020> <23:20:07>      9      0.00556171      0.00231320      1.3
 <Oct20-2020> <23:20:08>     10      0.00055230      0.00008885      0.0
 <Oct20-2020> <23:20:08>     11      0.00043058      0.00008872      0.0
 <Oct20-2020> <23:20:09>     12      0.00006395      0.00001883      0.0
 <Oct20-2020> <23:20:10>     13      0.00002377      0.00000763      0.0
 <Oct20-2020> <23:20:10>     14      0.00000895      0.00000287      0.0
 <Oct20-2020> <23:20:11>     15      0.00000384      0.00000119      0.0
 <Oct20-2020> <23:20:12>     16      0.00000046      0.00000017      0.0
 <Oct20-2020> <23:20:13>     17      0.00000010      0.00000004      0.0
 <Oct20-2020> <23:20:13>     18      0.00000004      0.00000001      0.0
 <Oct20-2020> <23:20:14>     19      0.00000001      0.00000000      0.0
 <Oct20-2020> <23:20:14>  SCF converged
 <Oct20-2020> <23:20:15>     20      0.00000000      0.00000000      0.0
 <Oct20-2020> <23:20:15>  >>>> TOTEN
 <Oct20-2020> <23:20:18>  >>>> POPAN
 <Oct20-2020> <23:20:18>  >>>> DEBYE
 <Oct20-2020> <23:20:18>  >>>> AMETS
 <Oct20-2020> <23:20:18>   Bond Energy          -0.79837934 a.u.
 <Oct20-2020> <23:20:18>   Bond Energy         -21.72500729 eV
 <Oct20-2020> <23:20:18>   Bond Energy        -500.99       kcal/mol
 <Oct20-2020> <23:20:18>  >>>> POPUL
 <Oct20-2020> <23:20:18>  >>>> EXCITATIONS
 <Oct20-2020> <23:20:19>    SS   A
 <Oct21-2020> <00:11:31>    ST   A
 <Oct21-2020> <01:02:57>  NORMAL TERMINATION
 <Oct21-2020> <01:02:57>  END
